<?xml version="1.0" encoding="UTF-8"?>

<!-- generated on Sun  9 Apr 22:58:21 2017 by SUMO gui Version 0.29.0
<?xml version="1.0" encoding="UTF-8"?>

<configuration xmlns:xsi="http://www.w3.org/2001/XMLSchema-instance" xsi:noNamespaceSchemaLocation="http://sumo.dlr.de/xsd/sumo-gui.exeConfiguration.xsd">

    <input>
        <net-file value="osm.net.xml"/>
        <route-files value="osm.passenger.trips.xml"/>
        <additional-files value="osm.poly.xml"/>
    </input>

    <output>
        <tripinfo-output value="tripinfo.xml"/>
    </output>

    <processing>
        <ignore-route-errors value="true"/>
    </processing>

    <routing>
        <device.rerouting.adaptation-steps value="180"/>
    </routing>

    <report>
        <verbose value="true"/>
        <duration-log.statistics value="true"/>
        <no-step-log value="true"/>
    </report>

    <traci_server>
        <remote-port value="56509"/>
    </traci_server>

    <gui_only>
        <gui-settings-file value="osm.view.xml"/>
    </gui_only>

</configuration>
-->

<tripinfos xmlns:xsi="http://www.w3.org/2001/XMLSchema-instance" xsi:noNamespaceSchemaLocation="http://sumo.dlr.de/xsd/tripinfo_file.xsd">
    <tripinfo id="veh61" depart="80.00" departLane="155241613#0_0" departPos="5.10" departSpeed="0.00" departDelay="-0.35" arrival="111.00" arrivalLane="155241613#2_0" arrivalPos="291.27" arrivalSpeed="21.93" duration="31.00" routeLength="562.25" waitSteps="0" timeLoss="5.20" rerouteNo="1" devices="tripinfo_veh61 routing_veh61" vType="passenger" speedFactor="1.00" vaporized=""/>
    <tripinfo id="veh1" depart="1.00" departLane="155241613#0_0" departPos="5.10" departSpeed="0.00" departDelay="-0.32" arrival="114.00" arrivalLane="106468047_0" arrivalPos="442.97" arrivalSpeed="15.72" duration="113.00" routeLength="2162.05" waitSteps="0" timeLoss="8.27" rerouteNo="1" devices="tripinfo_veh1 routing_veh1" vType="passenger" speedFactor="1.00" vaporized=""/>
    <tripinfo id="veh4" depart="5.00" departLane="155241613#0_1" departPos="5.10" departSpeed="0.00" departDelay="-0.27" arrival="118.00" arrivalLane="106468047_1" arrivalPos="442.97" arrivalSpeed="16.52" duration="113.00" routeLength="2162.05" waitSteps="0" timeLoss="8.85" rerouteNo="1" devices="tripinfo_veh4 routing_veh4" vType="passenger" speedFactor="1.00" vaporized=""/>
    <tripinfo id="veh5" depart="6.00" departLane="155241613#0_0" departPos="5.10" departSpeed="0.00" departDelay="-0.59" arrival="119.00" arrivalLane="106468047_0" arrivalPos="442.97" arrivalSpeed="16.44" duration="113.00" routeLength="2162.05" waitSteps="0" timeLoss="8.04" rerouteNo="1" devices="tripinfo_veh5 routing_veh5" vType="passenger" speedFactor="1.00" vaporized=""/>
    <tripinfo id="veh8" depart="10.00" departLane="155241613#0_1" departPos="5.10" departSpeed="0.00" departDelay="-0.54" arrival="122.00" arrivalLane="106468047_0" arrivalPos="442.97" arrivalSpeed="16.20" duration="112.00" routeLength="2162.05" waitSteps="0" timeLoss="7.68" rerouteNo="1" devices="tripinfo_veh8 routing_veh8" vType="passenger" speedFactor="1.00" vaporized=""/>
    <tripinfo id="veh0" depart="0.00" departLane="106468041_0" departPos="5.10" departSpeed="0.00" departDelay="0.00" arrival="123.00" arrivalLane="106468046#1_0" arrivalPos="561.65" arrivalSpeed="21.38" duration="123.00" routeLength="2421.67" waitSteps="0" timeLoss="7.77" rerouteNo="1" devices="tripinfo_veh0 routing_veh0" vType="passenger" speedFactor="1.00" vaporized=""/>
    <tripinfo id="veh27" depart="38.00" departLane="155241613#3_1" departPos="5.10" departSpeed="0.00" departDelay="2.43" arrival="124.00" arrivalLane="106468047_1" arrivalPos="442.97" arrivalSpeed="15.91" duration="86.00" routeLength="1589.89" waitSteps="0" timeLoss="7.57" rerouteNo="0" devices="tripinfo_veh27 routing_veh27" vType="passenger" speedFactor="1.00" vaporized=""/>
    <tripinfo id="veh2" depart="2.00" departLane="106468041_1" departPos="5.10" departSpeed="0.00" departDelay="-0.63" arrival="125.00" arrivalLane="106468046#1_0" arrivalPos="561.65" arrivalSpeed="21.97" duration="123.00" routeLength="2421.67" waitSteps="0" timeLoss="7.36" rerouteNo="1" devices="tripinfo_veh2 routing_veh2" vType="passenger" speedFactor="1.00" vaporized=""/>
    <tripinfo id="veh9" depart="11.00" departLane="155241613#0_0" departPos="5.10" departSpeed="0.00" departDelay="-0.86" arrival="126.00" arrivalLane="106468047_1" arrivalPos="442.97" arrivalSpeed="16.07" duration="115.00" routeLength="2162.05" waitSteps="0" timeLoss="10.34" rerouteNo="1" devices="tripinfo_veh9 routing_veh9" vType="passenger" speedFactor="1.00" vaporized=""/>
    <tripinfo id="veh3" depart="3.00" departLane="106468041_0" departPos="5.10" departSpeed="0.00" departDelay="-0.95" arrival="127.00" arrivalLane="106468046#1_0" arrivalPos="561.65" arrivalSpeed="21.77" duration="124.00" routeLength="2421.67" waitSteps="0" timeLoss="8.15" rerouteNo="1" devices="tripinfo_veh3 routing_veh3" vType="passenger" speedFactor="1.00" vaporized=""/>
    <tripinfo id="veh10" depart="13.00" departLane="155241613#0_1" departPos="5.10" departSpeed="0.00" departDelay="-0.17" arrival="128.00" arrivalLane="106468047_0" arrivalPos="442.97" arrivalSpeed="16.34" duration="115.00" routeLength="2162.05" waitSteps="0" timeLoss="10.04" rerouteNo="1" devices="tripinfo_veh10 routing_veh10" vType="passenger" speedFactor="1.00" vaporized=""/>
    <tripinfo id="veh11" depart="14.00" departLane="155241613#0_0" departPos="5.10" departSpeed="0.00" departDelay="-0.49" arrival="129.00" arrivalLane="106468047_1" arrivalPos="442.97" arrivalSpeed="15.91" duration="115.00" routeLength="2162.05" waitSteps="0" timeLoss="10.19" rerouteNo="1" devices="tripinfo_veh11 routing_veh11" vType="passenger" speedFactor="1.00" vaporized=""/>
    <tripinfo id="veh12" depart="17.00" departLane="155241613#0_0" departPos="5.10" departSpeed="0.00" departDelay="1.19" arrival="130.00" arrivalLane="106468047_0" arrivalPos="442.97" arrivalSpeed="15.98" duration="113.00" routeLength="2162.05" waitSteps="0" timeLoss="8.86" rerouteNo="1" devices="tripinfo_veh12 routing_veh12" vType="passenger" speedFactor="1.00" vaporized=""/>
    <tripinfo id="veh6" depart="7.00" departLane="106468041_1" departPos="5.10" departSpeed="0.00" departDelay="-0.90" arrival="131.00" arrivalLane="106468046#1_0" arrivalPos="561.65" arrivalSpeed="21.20" duration="124.00" routeLength="2421.67" waitSteps="0" timeLoss="8.84" rerouteNo="1" devices="tripinfo_veh6 routing_veh6" vType="passenger" speedFactor="1.00" vaporized=""/>
    <tripinfo id="veh7" depart="9.00" departLane="106468041_0" departPos="5.10" departSpeed="0.00" departDelay="-0.22" arrival="132.00" arrivalLane="106468046#1_1" arrivalPos="561.65" arrivalSpeed="21.59" duration="123.00" routeLength="2421.67" waitSteps="0" timeLoss="7.79" rerouteNo="1" devices="tripinfo_veh7 routing_veh7" vType="passenger" speedFactor="1.00" vaporized=""/>
    <tripinfo id="veh17" depart="22.00" departLane="155241613#0_1" departPos="5.10" departSpeed="0.00" departDelay="-0.39" arrival="135.00" arrivalLane="106468047_0" arrivalPos="442.97" arrivalSpeed="16.37" duration="113.00" routeLength="2162.05" waitSteps="0" timeLoss="8.03" rerouteNo="1" devices="tripinfo_veh17 routing_veh17" vType="passenger" speedFactor="1.00" vaporized=""/>
    <tripinfo id="veh30" depart="39.00" departLane="155241613#2_1" departPos="5.10" departSpeed="0.00" departDelay="-0.52" arrival="139.00" arrivalLane="106468047_1" arrivalPos="442.97" arrivalSpeed="15.38" duration="100.00" routeLength="1885.97" waitSteps="0" timeLoss="8.02" rerouteNo="1" devices="tripinfo_veh30 routing_veh30" vType="passenger" speedFactor="1.00" vaporized=""/>
    <tripinfo id="veh13" depart="17.00" departLane="106468041_1" departPos="5.10" departSpeed="0.00" departDelay="-0.12" arrival="140.00" arrivalLane="106468046#1_0" arrivalPos="561.65" arrivalSpeed="21.95" duration="123.00" routeLength="2421.67" waitSteps="0" timeLoss="7.61" rerouteNo="1" devices="tripinfo_veh13 routing_veh13" vType="passenger" speedFactor="1.00" vaporized=""/>
    <tripinfo id="veh19" depart="25.00" departLane="155241613#0_0" departPos="5.10" departSpeed="0.00" departDelay="-0.03" arrival="140.00" arrivalLane="106468047_0" arrivalPos="442.97" arrivalSpeed="16.23" duration="115.00" routeLength="2162.05" waitSteps="0" timeLoss="10.06" rerouteNo="1" devices="tripinfo_veh19 routing_veh19" vType="passenger" speedFactor="1.00" vaporized=""/>
    <tripinfo id="veh20" depart="26.00" departLane="155241613#0_1" departPos="5.10" departSpeed="0.00" departDelay="-0.34" arrival="141.00" arrivalLane="106468047_1" arrivalPos="442.97" arrivalSpeed="15.87" duration="115.00" routeLength="2162.05" waitSteps="0" timeLoss="10.40" rerouteNo="1" devices="tripinfo_veh20 routing_veh20" vType="passenger" speedFactor="1.00" vaporized=""/>
    <tripinfo id="veh14" depart="18.00" departLane="106468041_0" departPos="5.10" departSpeed="0.00" departDelay="-0.44" arrival="142.00" arrivalLane="106468046#1_1" arrivalPos="561.65" arrivalSpeed="21.13" duration="124.00" routeLength="2421.67" waitSteps="0" timeLoss="8.34" rerouteNo="1" devices="tripinfo_veh14 routing_veh14" vType="passenger" speedFactor="1.00" vaporized=""/>
    <tripinfo id="veh15" depart="20.00" departLane="106468041_1" departPos="5.10" departSpeed="0.00" departDelay="0.24" arrival="143.00" arrivalLane="106468046#1_1" arrivalPos="561.65" arrivalSpeed="20.96" duration="123.00" routeLength="2421.67" waitSteps="0" timeLoss="7.95" rerouteNo="1" devices="tripinfo_veh15 routing_veh15" vType="passenger" speedFactor="1.00" vaporized=""/>
    <tripinfo id="veh21" depart="29.00" departLane="155241613#0_0" departPos="5.10" departSpeed="0.00" departDelay="1.34" arrival="143.00" arrivalLane="106468047_0" arrivalPos="442.97" arrivalSpeed="15.68" duration="114.00" routeLength="2162.05" waitSteps="0" timeLoss="9.36" rerouteNo="1" devices="tripinfo_veh21 routing_veh21" vType="passenger" speedFactor="1.00" vaporized=""/>
    <tripinfo id="veh16" depart="21.00" departLane="106468041_0" departPos="5.10" departSpeed="0.00" departDelay="-0.08" arrival="145.00" arrivalLane="106468046#1_0" arrivalPos="561.65" arrivalSpeed="21.88" duration="124.00" routeLength="2421.67" waitSteps="0" timeLoss="8.30" rerouteNo="1" devices="tripinfo_veh16 routing_veh16" vType="passenger" speedFactor="1.00" vaporized=""/>
    <tripinfo id="veh25" depart="32.00" departLane="155241613#0_0" departPos="5.10" departSpeed="0.00" departDelay="-0.93" arrival="145.00" arrivalLane="106468047_1" arrivalPos="442.97" arrivalSpeed="15.77" duration="113.00" routeLength="2162.05" waitSteps="0" timeLoss="8.83" rerouteNo="1" devices="tripinfo_veh25 routing_veh25" vType="passenger" speedFactor="1.00" vaporized=""/>
    <tripinfo id="veh18" depart="23.00" departLane="106468041_1" departPos="5.10" departSpeed="0.00" departDelay="-0.71" arrival="147.00" arrivalLane="106468046#1_0" arrivalPos="561.65" arrivalSpeed="21.84" duration="124.00" routeLength="2421.67" waitSteps="0" timeLoss="8.27" rerouteNo="1" devices="tripinfo_veh18 routing_veh18" vType="passenger" speedFactor="1.00" vaporized=""/>
    <tripinfo id="veh22" depart="28.00" departLane="106468041_1" departPos="5.10" departSpeed="0.00" departDelay="-0.98" arrival="152.00" arrivalLane="106468046#1_0" arrivalPos="561.65" arrivalSpeed="21.08" duration="124.00" routeLength="2421.67" waitSteps="0" timeLoss="8.37" rerouteNo="1" devices="tripinfo_veh22 routing_veh22" vType="passenger" speedFactor="1.00" vaporized=""/>
    <tripinfo id="veh31" depart="40.00" departLane="155241613#0_1" departPos="5.10" departSpeed="0.00" departDelay="-0.83" arrival="152.00" arrivalLane="106468047_0" arrivalPos="442.97" arrivalSpeed="15.77" duration="112.00" routeLength="2162.05" waitSteps="0" timeLoss="7.65" rerouteNo="1" devices="tripinfo_veh31 routing_veh31" vType="passenger" speedFactor="1.00" vaporized=""/>
    <tripinfo id="veh24" depart="31.00" departLane="106468041_1" departPos="5.10" departSpeed="0.00" departDelay="-0.61" arrival="154.00" arrivalLane="106468046#1_1" arrivalPos="561.65" arrivalSpeed="21.76" duration="123.00" routeLength="2421.67" waitSteps="0" timeLoss="8.04" rerouteNo="1" devices="tripinfo_veh24 routing_veh24" vType="passenger" speedFactor="1.00" vaporized=""/>
    <tripinfo id="veh23" depart="30.00" departLane="106468041_0" departPos="5.10" departSpeed="0.00" departDelay="-0.30" arrival="154.00" arrivalLane="106468046#1_0" arrivalPos="561.65" arrivalSpeed="21.90" duration="124.00" routeLength="2421.67" waitSteps="0" timeLoss="8.36" rerouteNo="1" devices="tripinfo_veh23 routing_veh23" vType="passenger" speedFactor="1.00" vaporized=""/>
    <tripinfo id="veh26" depart="34.00" departLane="106468041_1" departPos="5.10" departSpeed="0.00" departDelay="-0.25" arrival="157.00" arrivalLane="106468046#1_0" arrivalPos="561.65" arrivalSpeed="20.94" duration="123.00" routeLength="2421.67" waitSteps="0" timeLoss="7.68" rerouteNo="1" devices="tripinfo_veh26 routing_veh26" vType="passenger" speedFactor="1.00" vaporized=""/>
    <tripinfo id="veh32" depart="43.00" departLane="155241613#0_1" departPos="5.10" departSpeed="0.00" departDelay="0.85" arrival="157.00" arrivalLane="106468047_0" arrivalPos="442.97" arrivalSpeed="16.00" duration="114.00" routeLength="2162.05" waitSteps="0" timeLoss="9.10" rerouteNo="1" devices="tripinfo_veh32 routing_veh32" vType="passenger" speedFactor="1.00" vaporized=""/>
    <tripinfo id="veh34" depart="44.00" departLane="155241613#0_0" departPos="5.10" departSpeed="0.00" departDelay="-0.79" arrival="158.00" arrivalLane="106468047_1" arrivalPos="442.97" arrivalSpeed="16.23" duration="114.00" routeLength="2162.05" waitSteps="0" timeLoss="9.19" rerouteNo="1" devices="tripinfo_veh34 routing_veh34" vType="passenger" speedFactor="1.00" vaporized=""/>
    <tripinfo id="veh36" depart="47.00" departLane="155241613#0_0" departPos="5.10" departSpeed="0.00" departDelay="-0.42" arrival="159.00" arrivalLane="106468047_0" arrivalPos="442.97" arrivalSpeed="16.34" duration="112.00" routeLength="2162.05" waitSteps="0" timeLoss="7.72" rerouteNo="1" devices="tripinfo_veh36 routing_veh36" vType="passenger" speedFactor="1.00" vaporized=""/>
    <tripinfo id="veh28" depart="37.00" departLane="106468041_1" departPos="5.10" departSpeed="0.00" departDelay="0.12" arrival="160.00" arrivalLane="106468046#1_0" arrivalPos="561.65" arrivalSpeed="22.12" duration="123.00" routeLength="2421.67" waitSteps="0" timeLoss="7.54" rerouteNo="1" devices="tripinfo_veh28 routing_veh28" vType="passenger" speedFactor="1.00" vaporized=""/>
    <tripinfo id="veh35" depart="47.00" departLane="155241613#0_1" departPos="5.10" departSpeed="0.00" departDelay="0.90" arrival="160.00" arrivalLane="106468047_1" arrivalPos="442.97" arrivalSpeed="16.31" duration="113.00" routeLength="2162.05" waitSteps="0" timeLoss="8.85" rerouteNo="1" devices="tripinfo_veh35 routing_veh35" vType="passenger" speedFactor="1.00" vaporized=""/>
    <tripinfo id="veh29" depart="38.00" departLane="106468041_0" departPos="5.10" departSpeed="0.00" departDelay="-0.20" arrival="162.00" arrivalLane="106468046#1_0" arrivalPos="561.65" arrivalSpeed="21.10" duration="124.00" routeLength="2421.67" waitSteps="0" timeLoss="8.39" rerouteNo="1" devices="tripinfo_veh29 routing_veh29" vType="passenger" speedFactor="1.00" vaporized=""/>
    <tripinfo id="veh38" depart="50.00" departLane="155241613#0_1" departPos="5.10" departSpeed="0.00" departDelay="-0.06" arrival="163.00" arrivalLane="106468047_0" arrivalPos="442.97" arrivalSpeed="15.73" duration="113.00" routeLength="2162.05" waitSteps="0" timeLoss="8.42" rerouteNo="1" devices="tripinfo_veh38 routing_veh38" vType="passenger" speedFactor="1.00" vaporized=""/>
    <tripinfo id="veh33" depart="43.00" departLane="106468041_1" departPos="5.10" departSpeed="0.00" departDelay="-0.47" arrival="166.00" arrivalLane="106468046#1_0" arrivalPos="561.65" arrivalSpeed="20.97" duration="123.00" routeLength="2421.67" waitSteps="0" timeLoss="7.84" rerouteNo="1" devices="tripinfo_veh33 routing_veh33" vType="passenger" speedFactor="1.00" vaporized=""/>
    <tripinfo id="veh40" depart="52.00" departLane="155241613#0_0" departPos="5.10" departSpeed="0.00" departDelay="-0.69" arrival="166.00" arrivalLane="106468047_0" arrivalPos="442.97" arrivalSpeed="16.43" duration="114.00" routeLength="2162.05" waitSteps="0" timeLoss="9.88" rerouteNo="1" devices="tripinfo_veh40 routing_veh40" vType="passenger" speedFactor="1.00" vaporized=""/>
    <tripinfo id="veh56" depart="80.00" departLane="155241613#3_1" departPos="5.10" departSpeed="0.00" departDelay="6.23" arrival="167.00" arrivalLane="106468047_1" arrivalPos="442.97" arrivalSpeed="16.25" duration="87.00" routeLength="1589.89" waitSteps="0" timeLoss="8.02" rerouteNo="0" devices="tripinfo_veh56 routing_veh56" vType="passenger" speedFactor="1.00" vaporized=""/>
    <tripinfo id="veh45" depart="66.00" departLane="155241613#2_1" departPos="5.10" departSpeed="0.00" departDelay="6.72" arrival="168.00" arrivalLane="106468047_0" arrivalPos="442.97" arrivalSpeed="15.67" duration="102.00" routeLength="1885.97" waitSteps="0" timeLoss="10.35" rerouteNo="1" devices="tripinfo_veh45 routing_veh45" vType="passenger" speedFactor="1.00" vaporized=""/>
    <tripinfo id="veh43" depart="56.00" departLane="155241613#0_1" departPos="5.10" departSpeed="0.00" departDelay="-0.64" arrival="170.00" arrivalLane="106468047_1" arrivalPos="442.97" arrivalSpeed="16.43" duration="114.00" routeLength="2162.05" waitSteps="0" timeLoss="9.20" rerouteNo="1" devices="tripinfo_veh43 routing_veh43" vType="passenger" speedFactor="1.00" vaporized=""/>
    <tripinfo id="veh37" depart="48.00" departLane="106468041_0" departPos="5.10" departSpeed="0.00" departDelay="-0.74" arrival="171.00" arrivalLane="106468046#1_0" arrivalPos="561.65" arrivalSpeed="21.85" duration="123.00" routeLength="2421.67" waitSteps="0" timeLoss="7.77" rerouteNo="1" devices="tripinfo_veh37 routing_veh37" vType="passenger" speedFactor="1.00" vaporized=""/>
    <tripinfo id="veh39" depart="51.00" departLane="106468041_1" departPos="5.10" departSpeed="0.00" departDelay="-0.37" arrival="174.00" arrivalLane="106468046#1_0" arrivalPos="561.65" arrivalSpeed="21.67" duration="123.00" routeLength="2421.67" waitSteps="0" timeLoss="7.74" rerouteNo="1" devices="tripinfo_veh39 routing_veh39" vType="passenger" speedFactor="1.00" vaporized=""/>
    <tripinfo id="veh41" depart="54.00" departLane="106468041_1" departPos="5.10" departSpeed="0.00" departDelay="-0.01" arrival="177.00" arrivalLane="106468046#1_0" arrivalPos="561.65" arrivalSpeed="21.00" duration="123.00" routeLength="2421.67" waitSteps="0" timeLoss="7.89" rerouteNo="1" devices="tripinfo_veh41 routing_veh41" vType="passenger" speedFactor="1.00" vaporized=""/>
    <tripinfo id="veh49" depart="64.00" departLane="155241613#0_0" departPos="5.10" departSpeed="0.00" departDelay="-0.55" arrival="177.00" arrivalLane="106468047_0" arrivalPos="442.97" arrivalSpeed="16.02" duration="113.00" routeLength="2162.05" waitSteps="0" timeLoss="8.20" rerouteNo="1" devices="tripinfo_veh49 routing_veh49" vType="passenger" speedFactor="1.00" vaporized=""/>
    <tripinfo id="veh42" depart="57.00" departLane="106468041_1" departPos="5.10" departSpeed="0.00" departDelay="1.68" arrival="180.00" arrivalLane="106468046#1_0" arrivalPos="561.65" arrivalSpeed="21.72" duration="123.00" routeLength="2421.67" waitSteps="0" timeLoss="7.74" rerouteNo="1" devices="tripinfo_veh42 routing_veh42" vType="passenger" speedFactor="1.00" vaporized=""/>
    <tripinfo id="veh52" depart="68.00" departLane="155241613#0_0" departPos="5.10" departSpeed="0.00" departDelay="-0.50" arrival="181.00" arrivalLane="106468047_0" arrivalPos="442.97" arrivalSpeed="15.93" duration="113.00" routeLength="2162.05" waitSteps="0" timeLoss="8.51" rerouteNo="1" devices="tripinfo_veh52 routing_veh52" vType="passenger" speedFactor="1.00" vaporized=""/>
    <tripinfo id="veh44" depart="60.00" departLane="106468041_1" departPos="5.10" departSpeed="0.00" departDelay="2.04" arrival="183.00" arrivalLane="106468046#1_0" arrivalPos="561.65" arrivalSpeed="21.99" duration="123.00" routeLength="2421.67" waitSteps="0" timeLoss="7.71" rerouteNo="1" devices="tripinfo_veh44 routing_veh44" vType="passenger" speedFactor="1.00" vaporized=""/>
    <tripinfo id="veh46" depart="63.00" departLane="106468041_1" departPos="5.10" departSpeed="0.00" departDelay="2.41" arrival="186.00" arrivalLane="106468046#1_0" arrivalPos="561.65" arrivalSpeed="21.71" duration="123.00" routeLength="2421.67" waitSteps="0" timeLoss="7.72" rerouteNo="1" devices="tripinfo_veh46 routing_veh46" vType="passenger" speedFactor="1.00" vaporized=""/>
    <tripinfo id="veh57" depart="75.00" departLane="155241613#0_1" departPos="5.10" departSpeed="0.00" departDelay="-0.08" arrival="188.00" arrivalLane="106468047_0" arrivalPos="442.97" arrivalSpeed="15.77" duration="113.00" routeLength="2162.05" waitSteps="0" timeLoss="8.21" rerouteNo="1" devices="tripinfo_veh57 routing_veh57" vType="passenger" speedFactor="1.00" vaporized=""/>
    <tripinfo id="veh48" depart="66.00" departLane="106468041_1" departPos="5.10" departSpeed="0.00" departDelay="2.77" arrival="189.00" arrivalLane="106468046#1_1" arrivalPos="561.65" arrivalSpeed="21.99" duration="123.00" routeLength="2421.67" waitSteps="0" timeLoss="7.81" rerouteNo="1" devices="tripinfo_veh48 routing_veh48" vType="passenger" speedFactor="1.00" vaporized=""/>
    <tripinfo id="veh47" depart="66.00" departLane="106468041_0" departPos="5.10" departSpeed="0.00" departDelay="4.09" arrival="189.00" arrivalLane="106468046#1_0" arrivalPos="561.65" arrivalSpeed="21.56" duration="123.00" routeLength="2421.67" waitSteps="0" timeLoss="7.78" rerouteNo="1" devices="tripinfo_veh47 routing_veh47" vType="passenger" speedFactor="1.00" vaporized=""/>
    <tripinfo id="veh50" depart="69.00" departLane="106468041_1" departPos="5.10" departSpeed="0.00" departDelay="3.14" arrival="192.00" arrivalLane="106468046#1_0" arrivalPos="561.65" arrivalSpeed="21.23" duration="123.00" routeLength="2421.67" waitSteps="0" timeLoss="7.79" rerouteNo="1" devices="tripinfo_veh50 routing_veh50" vType="passenger" speedFactor="1.00" vaporized=""/>
    <tripinfo id="veh62" depart="81.00" departLane="155241613#0_1" departPos="5.10" departSpeed="0.00" departDelay="-0.67" arrival="194.00" arrivalLane="106468047_0" arrivalPos="442.97" arrivalSpeed="16.05" duration="113.00" routeLength="2162.05" waitSteps="0" timeLoss="8.68" rerouteNo="1" devices="tripinfo_veh62 routing_veh62" vType="passenger" speedFactor="1.00" vaporized=""/>
    <tripinfo id="veh51" depart="72.00" departLane="106468041_1" departPos="5.10" departSpeed="0.00" departDelay="4.82" arrival="195.00" arrivalLane="106468046#1_0" arrivalPos="561.65" arrivalSpeed="22.01" duration="123.00" routeLength="2421.67" waitSteps="0" timeLoss="7.49" rerouteNo="1" devices="tripinfo_veh51 routing_veh51" vType="passenger" speedFactor="1.00" vaporized=""/>
    <tripinfo id="veh64" depart="84.00" departLane="155241613#0_1" departPos="5.10" departSpeed="0.00" departDelay="-0.30" arrival="197.00" arrivalLane="106468047_0" arrivalPos="442.97" arrivalSpeed="15.83" duration="113.00" routeLength="2162.05" waitSteps="0" timeLoss="8.84" rerouteNo="1" devices="tripinfo_veh64 routing_veh64" vType="passenger" speedFactor="1.00" vaporized=""/>
    <tripinfo id="veh53" depart="75.00" departLane="106468041_1" departPos="5.10" departSpeed="0.00" departDelay="5.19" arrival="198.00" arrivalLane="106468046#1_0" arrivalPos="561.65" arrivalSpeed="21.24" duration="123.00" routeLength="2421.67" waitSteps="0" timeLoss="7.47" rerouteNo="1" devices="tripinfo_veh53 routing_veh53" vType="passenger" speedFactor="1.00" vaporized=""/>
    <tripinfo id="veh65" depart="85.00" departLane="155241613#0_0" departPos="5.10" departSpeed="0.00" departDelay="-0.62" arrival="199.00" arrivalLane="106468047_1" arrivalPos="442.97" arrivalSpeed="16.02" duration="114.00" routeLength="2162.05" waitSteps="0" timeLoss="8.98" rerouteNo="1" devices="tripinfo_veh65 routing_veh65" vType="passenger" speedFactor="1.00" vaporized=""/>
    <tripinfo id="veh54" depart="78.00" departLane="106468041_1" departPos="5.10" departSpeed="0.00" departDelay="6.87" arrival="201.00" arrivalLane="106468046#1_0" arrivalPos="561.65" arrivalSpeed="21.15" duration="123.00" routeLength="2421.67" waitSteps="0" timeLoss="8.05" rerouteNo="1" devices="tripinfo_veh54 routing_veh54" vType="passenger" speedFactor="1.00" vaporized=""/>
    <tripinfo id="veh66" depart="87.00" departLane="155241613#0_1" departPos="5.10" departSpeed="0.00" departDelay="0.06" arrival="201.00" arrivalLane="106468047_0" arrivalPos="442.97" arrivalSpeed="16.09" duration="114.00" routeLength="2162.05" waitSteps="0" timeLoss="9.90" rerouteNo="1" devices="tripinfo_veh66 routing_veh66" vType="passenger" speedFactor="1.00" vaporized=""/>
    <tripinfo id="veh68" depart="89.00" departLane="155241613#0_0" departPos="5.10" departSpeed="0.00" departDelay="-0.57" arrival="202.00" arrivalLane="106468047_1" arrivalPos="442.97" arrivalSpeed="16.18" duration="113.00" routeLength="2162.05" waitSteps="0" timeLoss="8.54" rerouteNo="1" devices="tripinfo_veh68 routing_veh68" vType="passenger" speedFactor="1.00" vaporized=""/>
    <tripinfo id="veh55" depart="81.00" departLane="106468041_1" departPos="5.10" departSpeed="0.00" departDelay="8.55" arrival="204.00" arrivalLane="106468046#1_0" arrivalPos="561.65" arrivalSpeed="21.38" duration="123.00" routeLength="2421.67" waitSteps="0" timeLoss="7.56" rerouteNo="1" devices="tripinfo_veh55 routing_veh55" vType="passenger" speedFactor="1.00" vaporized=""/>
    <tripinfo id="veh70" depart="92.00" departLane="155241613#0_0" departPos="5.10" departSpeed="0.00" departDelay="-0.21" arrival="205.00" arrivalLane="106468047_0" arrivalPos="442.97" arrivalSpeed="16.51" duration="113.00" routeLength="2162.05" waitSteps="0" timeLoss="8.39" rerouteNo="1" devices="tripinfo_veh70 routing_veh70" vType="passenger" speedFactor="1.00" vaporized=""/>
    <tripinfo id="veh71" depart="93.00" departLane="155241613#0_1" departPos="5.10" departSpeed="0.00" departDelay="-0.52" arrival="206.00" arrivalLane="106468047_1" arrivalPos="442.97" arrivalSpeed="15.98" duration="113.00" routeLength="2162.05" waitSteps="0" timeLoss="8.69" rerouteNo="1" devices="tripinfo_veh71 routing_veh71" vType="passenger" speedFactor="1.00" vaporized=""/>
    <tripinfo id="veh58" depart="84.00" departLane="106468041_1" departPos="5.10" departSpeed="0.00" departDelay="7.60" arrival="207.00" arrivalLane="106468046#1_0" arrivalPos="561.65" arrivalSpeed="21.50" duration="123.00" routeLength="2421.67" waitSteps="0" timeLoss="7.34" rerouteNo="1" devices="tripinfo_veh58 routing_veh58" vType="passenger" speedFactor="1.00" vaporized=""/>
    <tripinfo id="veh59" depart="87.00" departLane="106468041_1" departPos="5.10" departSpeed="0.00" departDelay="9.28" arrival="211.00" arrivalLane="106468046#1_0" arrivalPos="561.65" arrivalSpeed="22.01" duration="124.00" routeLength="2421.67" waitSteps="0" timeLoss="8.34" rerouteNo="1" devices="tripinfo_veh59 routing_veh59" vType="passenger" speedFactor="1.00" vaporized=""/>
    <tripinfo id="veh75" depart="98.00" departLane="155241613#0_1" departPos="5.10" departSpeed="0.00" departDelay="-0.79" arrival="211.00" arrivalLane="106468047_0" arrivalPos="442.97" arrivalSpeed="15.49" duration="113.00" routeLength="2162.05" waitSteps="0" timeLoss="8.85" rerouteNo="1" devices="tripinfo_veh75 routing_veh75" vType="passenger" speedFactor="1.00" vaporized=""/>
    <tripinfo id="veh77" depart="101.00" departLane="155241613#0_0" departPos="5.10" departSpeed="0.00" departDelay="-0.43" arrival="214.00" arrivalLane="106468047_1" arrivalPos="442.97" arrivalSpeed="15.40" duration="113.00" routeLength="2162.05" waitSteps="0" timeLoss="8.19" rerouteNo="1" devices="tripinfo_veh77 routing_veh77" vType="passenger" speedFactor="1.00" vaporized=""/>
    <tripinfo id="veh60" depart="90.00" departLane="106468041_1" departPos="5.10" departSpeed="0.00" departDelay="10.97" arrival="214.00" arrivalLane="106468046#1_0" arrivalPos="561.65" arrivalSpeed="21.85" duration="124.00" routeLength="2421.67" waitSteps="0" timeLoss="8.36" rerouteNo="1" devices="tripinfo_veh60 routing_veh60" vType="passenger" speedFactor="1.00" vaporized=""/>
    <tripinfo id="veh78" depart="102.00" departLane="155241613#0_1" departPos="5.10" departSpeed="0.00" departDelay="-0.75" arrival="215.00" arrivalLane="106468047_0" arrivalPos="442.97" arrivalSpeed="16.12" duration="113.00" routeLength="2162.05" waitSteps="0" timeLoss="8.57" rerouteNo="1" devices="tripinfo_veh78 routing_veh78" vType="passenger" speedFactor="1.00" vaporized=""/>
    <tripinfo id="veh63" depart="93.00" departLane="106468041_1" departPos="5.10" departSpeed="0.00" departDelay="10.01" arrival="216.00" arrivalLane="106468046#1_0" arrivalPos="561.65" arrivalSpeed="21.87" duration="123.00" routeLength="2421.67" waitSteps="0" timeLoss="7.51" rerouteNo="1" devices="tripinfo_veh63 routing_veh63" vType="passenger" speedFactor="1.00" vaporized=""/>
    <tripinfo id="veh79" depart="104.00" departLane="155241613#0_0" departPos="5.10" departSpeed="0.00" departDelay="-0.06" arrival="218.00" arrivalLane="106468047_0" arrivalPos="442.97" arrivalSpeed="16.15" duration="114.00" routeLength="2162.05" waitSteps="0" timeLoss="8.96" rerouteNo="1" devices="tripinfo_veh79 routing_veh79" vType="passenger" speedFactor="1.00" vaporized=""/>
    <tripinfo id="veh67" depart="96.00" departLane="106468041_1" departPos="5.10" departSpeed="0.00" departDelay="7.74" arrival="219.00" arrivalLane="106468046#1_0" arrivalPos="561.65" arrivalSpeed="21.61" duration="123.00" routeLength="2421.67" waitSteps="0" timeLoss="7.56" rerouteNo="1" devices="tripinfo_veh67 routing_veh67" vType="passenger" speedFactor="1.00" vaporized=""/>